TITLE     = ""
VARIABLES = "Z<sub>fs</sub>  [m]"
"I<sub>U</sub>  [-]"
"I<sub>U</sub>  [%]"
""
"V5"
"V6"
ZONE T="VDI wenig rau (untere Grenze)"
 I=10, J=1, K=1, ZONETYPE=Ordered
 DATAPACKING=POINT
 DT=(SINGLE SINGLE SINGLE SINGLE SINGLE SINGLE )
 3.009030151E+002 1.263740007E-002 1.264000058E+000 1.000000000E+000 1.000000000E+000 1.000000000E+000
 2.491399994E+002 1.718199998E-002 1.718000054E+000 1.000000000E+000 1.000000000E+000 1.000000000E+000
 2.000310059E+002 2.097230032E-002 2.096999884E+000 1.000000000E+000 1.000000000E+000 1.000000000E+000
 1.504830017E+002 2.739769965E-002 2.740000010E+000 1.000000000E+000 1.000000000E+000 1.000000000E+000
 1.009359970E+002 3.457599878E-002 3.457999945E+000 1.000000000E+000 1.000000000E+000 1.000000000E+000
 4.962599945E+001 4.589569941E-002 4.590000153E+000 1.000000000E+000 1.000000000E+000 1.000000000E+000
 3.768799973E+001 5.192470178E-002 5.191999912E+000 1.000000000E+000 1.000000000E+000 1.000000000E+000
 2.884799957E+001 5.870480090E-002 5.869999886E+000 1.000000000E+000 1.000000000E+000 1.000000000E+000
 2.000900078E+001 6.586139649E-002 6.585999966E+000 1.000000000E+000 1.000000000E+000 1.000000000E+000
 1.073600006E+001 7.828789949E-002 7.828999996E+000 1.000000000E+000 1.000000000E+000 1.000000000E+000
ZONE T="VDI slightly rough (upper bound)"
 I=10, J=1, K=1, ZONETYPE=Ordered
 DATAPACKING=POINT
 DT=(SINGLE SINGLE SINGLE SINGLE SINGLE SINGLE )
 VARSHARELIST = ([4-6]=1)
 3.009549866E+002 4.726729915E-002 4.727000237E+000
 2.496380005E+002 5.444649979E-002 5.445000172E+000
 2.000910034E+002 6.124829873E-002 6.125000000E+000
 1.501029968E+002 6.955610216E-002 6.955999851E+000
 1.010080032E+002 8.313310146E-002 8.312999725E+000
 4.971500015E+001 1.061220020E-001 1.061200047E+001
 3.733700180E+001 1.132799983E-001 1.132800007E+001
 2.805999947E+001 1.234479994E-001 1.234500027E+001
 1.657399940E+001 1.362520009E-001 1.362500000E+001
 1.083399963E+001 1.445360035E-001 1.445400047E+001
ZONE T="VDI m‰ﬂig rau (untere Grenze)"
 I=10, J=1, K=1, ZONETYPE=Ordered
 DATAPACKING=POINT
 DT=(SINGLE SINGLE SINGLE SINGLE SINGLE SINGLE )
 VARSHARELIST = ([4-6]=1)
 3.009549866E+002 4.726729915E-002 4.727000237E+000
 2.496380005E+002 5.444649979E-002 5.445000172E+000
 2.000910034E+002 6.124829873E-002 6.125000000E+000
 1.501029968E+002 6.955610216E-002 6.955999851E+000
 1.010080032E+002 8.313310146E-002 8.312999725E+000
 4.971500015E+001 1.061220020E-001 1.061200047E+001
 3.733700180E+001 1.132799983E-001 1.132800007E+001
 2.805999947E+001 1.234479994E-001 1.234500027E+001
 1.657399940E+001 1.362520009E-001 1.362500000E+001
 1.083399963E+001 1.445360035E-001 1.445400047E+001
ZONE T="VDI moderately rough (upper bound)"
 I=9, J=1, K=1, ZONETYPE=Ordered
 DATAPACKING=POINT
 DT=(SINGLE SINGLE SINGLE SINGLE SINGLE SINGLE )
 3.014630127E+002 9.168359637E-002 9.168000221E+000 1.000000000E+000 1.000000000E+000 1.000000000E+000
 2.505919952E+002 1.007449999E-001 1.007499981E+001 1.000000000E+000 1.000000000E+000 1.000000000E+000
 1.997239990E+002 1.124410033E-001 1.124400043E+001 1.000000000E+000 1.000000000E+000 1.000000000E+000
 1.506269989E+002 1.241350025E-001 1.241399956E+001 1.000000000E+000 1.000000000E+000 1.000000000E+000
 1.002129974E+002 1.433590055E-001 1.433600044E+001 1.000000000E+000 1.000000000E+000 1.000000000E+000
 4.981200027E+001 1.712410003E-001 1.712400055E+001 1.000000000E+000 1.000000000E+000 1.000000000E+000
 3.478799820E+001 1.847999990E-001 1.847999954E+001 1.000000000E+000 1.000000000E+000 1.000000000E+000
 2.197999954E+001 2.006160021E-001 2.006200027E+001 1.000000000E+000 1.000000000E+000 1.000000000E+000
 1.051000023E+001 2.239589989E-001 2.239599991E+001 1.000000000E+000 1.000000000E+000 1.000000000E+000
ZONE T="VDI rau (untere Grenze)"
 I=9, J=1, K=1, ZONETYPE=Ordered
 DATAPACKING=POINT
 DT=(SINGLE SINGLE SINGLE SINGLE SINGLE SINGLE )
 VARSHARELIST = ([4-6]=4)
 3.014630127E+002 9.168359637E-002 9.168000221E+000
 2.505919952E+002 1.007449999E-001 1.007499981E+001
 1.997239990E+002 1.124410033E-001 1.124400043E+001
 1.506269989E+002 1.241350025E-001 1.241399956E+001
 1.002129974E+002 1.433590055E-001 1.433600044E+001
 4.981200027E+001 1.712410003E-001 1.712400055E+001
 3.478799820E+001 1.847999990E-001 1.847999954E+001
 2.197999954E+001 2.006160021E-001 2.006200027E+001
 1.051000023E+001 2.239589989E-001 2.239599991E+001
ZONE T="VDI rau (obere Grenze)"
 I=16, J=1, K=1, ZONETYPE=Ordered
 DATAPACKING=POINT
 DT=(SINGLE SINGLE SINGLE SINGLE SINGLE SINGLE )
 3.077300110E+002 1.398610026E-001 1.398600006E+001 1.000000000E+000 1.000000000E+000 1.000000000E+000
 3.006520081E+002 1.409939975E-001 1.409899998E+001 1.000000000E+000 1.000000000E+000 1.000000000E+000
 2.502259979E+002 1.523129940E-001 1.523099995E+001 1.000000000E+000 1.000000000E+000 1.000000000E+000
 2.006889954E+002 1.658899933E-001 1.658900070E+001 1.000000000E+000 1.000000000E+000 1.000000000E+000
 1.502720032E+002 1.832319945E-001 1.832299995E+001 1.000000000E+000 1.000000000E+000 1.000000000E+000
 1.087060013E+002 2.009460032E-001 2.009499931E+001 1.000000000E+000 1.000000000E+000 1.000000000E+000
 8.748200226E+001 2.111199945E-001 2.111199951E+001 1.000000000E+000 1.000000000E+000 1.000000000E+000
 7.201100159E+001 2.220440060E-001 2.220400047E+001 1.000000000E+000 1.000000000E+000 1.000000000E+000
 5.742599869E+001 2.333450019E-001 2.333499908E+001 1.000000000E+000 1.000000000E+000 1.000000000E+000
 4.947499847E+001 2.423830032E-001 2.423800087E+001 1.000000000E+000 1.000000000E+000 1.000000000E+000
 4.108300018E+001 2.521739900E-001 2.521699905E+001 1.000000000E+000 1.000000000E+000 1.000000000E+000
 3.313800049E+001 2.657290101E-001 2.657299995E+001 1.000000000E+000 1.000000000E+000 1.000000000E+000
 2.696199989E+001 2.777769864E-001 2.777799988E+001 1.000000000E+000 1.000000000E+000 1.000000000E+000
 2.212100029E+001 2.958480120E-001 2.958499908E+001 1.000000000E+000 1.000000000E+000 1.000000000E+000
 2.080299950E+001 3.018710017E-001 3.018700027E+001 1.000000000E+000 1.000000000E+000 1.000000000E+000
 1.728300095E+001 3.154239953E-001 3.154199982E+001 1.000000000E+000 1.000000000E+000 1.000000000E+000
ZONE T="VDI sehr rau (untere Grenze)"
 I=16, J=1, K=1, ZONETYPE=Ordered
 DATAPACKING=POINT
 DT=(SINGLE SINGLE SINGLE SINGLE SINGLE SINGLE )
 VARSHARELIST = ([4-6]=6)
 3.077300110E+002 1.398610026E-001 1.398600006E+001
 3.006520081E+002 1.409939975E-001 1.409899998E+001
 2.502259979E+002 1.523129940E-001 1.523099995E+001
 2.006889954E+002 1.658899933E-001 1.658900070E+001
 1.502720032E+002 1.832319945E-001 1.832299995E+001
 1.087060013E+002 2.009460032E-001 2.009499931E+001
 8.748200226E+001 2.111199945E-001 2.111199951E+001
 7.201100159E+001 2.220440060E-001 2.220400047E+001
 5.742599869E+001 2.333450019E-001 2.333499908E+001
 4.947499847E+001 2.423830032E-001 2.423800087E+001
 4.108300018E+001 2.521739900E-001 2.521699905E+001
 3.313800049E+001 2.657290101E-001 2.657299995E+001
 2.696199989E+001 2.777769864E-001 2.777799988E+001
 2.212100029E+001 2.958480120E-001 2.958499908E+001
 2.080299950E+001 3.018710017E-001 3.018700027E+001
 1.728300095E+001 3.154239953E-001 3.154199982E+001
ZONE T="VDI very rough (upper bound)"
 I=12, J=1, K=1, ZONETYPE=Ordered
 DATAPACKING=POINT
 DT=(SINGLE SINGLE SINGLE SINGLE SINGLE SINGLE )
 3.144670105E+002 2.072349936E-001 2.072400093E+001 1.000000000E+000 1.000000000E+000 1.000000000E+000
 3.007550049E+002 2.106299996E-001 2.106299973E+001 1.000000000E+000 1.000000000E+000 1.000000000E+000
 2.494470062E+002 2.234549969E-001 2.234600067E+001 1.000000000E+000 1.000000000E+000 1.000000000E+000
 2.016790009E+002 2.366549969E-001 2.366600037E+001 1.000000000E+000 1.000000000E+000 1.000000000E+000
 1.508220062E+002 2.555029988E-001 2.554999924E+001 1.000000000E+000 1.000000000E+000 1.000000000E+000
 1.004219971E+002 2.837609947E-001 2.837599945E+001 1.000000000E+000 1.000000000E+000 1.000000000E+000
 7.699700165E+001 3.018409908E-001 3.018400002E+001 1.000000000E+000 1.000000000E+000 1.000000000E+000
 5.933300018E+001 3.255639970E-001 3.255599976E+001 1.000000000E+000 1.000000000E+000 1.000000000E+000
 4.918299866E+001 3.436380029E-001 3.436399841E+001 1.000000000E+000 1.000000000E+000 1.000000000E+000
 3.378400040E+001 4.027419984E-001 4.027399826E+001 1.000000000E+000 1.000000000E+000 1.000000000E+000
 2.640800095E+001 5.009899735E-001 5.009899902E+001 1.000000000E+000 1.000000000E+000 1.000000000E+000
 2.599399948E+001 5.201870203E-001 5.201900101E+001 1.000000000E+000 1.000000000E+000 1.000000000E+000
ZONE T="ZONE 001"
 I=25, J=1, K=1, ZONETYPE=Ordered
 DATAPACKING=POINT
 DT=(SINGLE SINGLE SINGLE SINGLE SINGLE SINGLE )
 9.810000420E+000 9.990000000E+002 1.994293785E+001 1.000000000E+000 1.000000000E+000 1.000000000E+000
 1.127999973E+001 9.990000000E+002 1.980689621E+001 1.000000000E+000 1.000000000E+000 1.000000000E+000
 1.296000004E+001 9.990000000E+002 1.957161903E+001 1.000000000E+000 1.000000000E+000 1.000000000E+000
 1.490999985E+001 9.990000000E+002 1.914113617E+001 1.000000000E+000 1.000000000E+000 1.000000000E+000
 1.715999985E+001 9.990000000E+002 1.972067833E+001 1.000000000E+000 1.000000000E+000 1.000000000E+000
 1.973999977E+001 9.990000000E+002 1.938801384E+001 1.000000000E+000 1.000000000E+000 1.000000000E+000
 2.268000031E+001 9.990000000E+002 1.911691475E+001 1.000000000E+000 1.000000000E+000 1.000000000E+000
 2.610000038E+001 9.990000000E+002 1.884145546E+001 1.000000000E+000 1.000000000E+000 1.000000000E+000
 3.003000069E+001 9.990000000E+002 1.848859406E+001 1.000000000E+000 1.000000000E+000 1.000000000E+000
 3.452999878E+001 9.990000000E+002 1.741514015E+001 1.000000000E+000 1.000000000E+000 1.000000000E+000
 3.972000122E+001 9.990000000E+002 1.713768959E+001 1.000000000E+000 1.000000000E+000 1.000000000E+000
 4.568999863E+001 9.990000000E+002 1.693771362E+001 1.000000000E+000 1.000000000E+000 1.000000000E+000
 5.256000137E+001 9.990000000E+002 1.727423859E+001 1.000000000E+000 1.000000000E+000 1.000000000E+000
 6.045000076E+001 9.990000000E+002 1.589786720E+001 1.000000000E+000 1.000000000E+000 1.000000000E+000
 6.954000092E+001 9.990000000E+002 1.544874477E+001 1.000000000E+000 1.000000000E+000 1.000000000E+000
 8.001000214E+001 9.990000000E+002 1.434887505E+001 1.000000000E+000 1.000000000E+000 1.000000000E+000
 9.387000275E+001 9.990000000E+002 1.362397861E+001 1.000000000E+000 1.000000000E+000 1.000000000E+000
 1.080000000E+002 9.990000000E+002 1.276635551E+001 1.000000000E+000 1.000000000E+000 1.000000000E+000
 1.242300034E+002 9.990000000E+002 1.223605824E+001 1.000000000E+000 1.000000000E+000 1.000000000E+000
 1.428899994E+002 9.990000000E+002 1.183083534E+001 1.000000000E+000 1.000000000E+000 1.000000000E+000
 1.643399963E+002 9.990000000E+002 1.064505100E+001 1.000000000E+000 1.000000000E+000 1.000000000E+000
 1.890599976E+002 9.990000000E+002 1.071188164E+001 1.000000000E+000 1.000000000E+000 1.000000000E+000
 2.174700012E+002 9.990000000E+002 8.983716965E+000 1.000000000E+000 1.000000000E+000 1.000000000E+000
 2.501399994E+002 9.990000000E+002 7.951807022E+000 1.000000000E+000 1.000000000E+000 1.000000000E+000
 2.877300110E+002 9.990000000E+002 6.440474510E+000 1.000000000E+000 1.000000000E+000 1.000000000E+000
ZONE T="ZONE 001"
 I=19, J=1, K=1, ZONETYPE=Ordered
 DATAPACKING=POINT
 DT=(SINGLE SINGLE SINGLE SINGLE SINGLE SINGLE )
 2.268000031E+001 9.990000000E+002 1.911691475E+001 1.000000000E+000 1.000000000E+000 1.000000000E+000
 2.610000038E+001 9.990000000E+002 1.884145546E+001 1.000000000E+000 1.000000000E+000 1.000000000E+000
 3.003000069E+001 9.990000000E+002 1.848859406E+001 1.000000000E+000 1.000000000E+000 1.000000000E+000
 3.452999878E+001 9.990000000E+002 1.741514015E+001 1.000000000E+000 1.000000000E+000 1.000000000E+000
 3.972000122E+001 9.990000000E+002 1.713768959E+001 1.000000000E+000 1.000000000E+000 1.000000000E+000
 4.568999863E+001 9.990000000E+002 1.693771362E+001 1.000000000E+000 1.000000000E+000 1.000000000E+000
 5.256000137E+001 9.990000000E+002 1.727423859E+001 1.000000000E+000 1.000000000E+000 1.000000000E+000
 6.045000076E+001 9.990000000E+002 1.589786720E+001 1.000000000E+000 1.000000000E+000 1.000000000E+000
 6.954000092E+001 9.990000000E+002 1.544874477E+001 1.000000000E+000 1.000000000E+000 1.000000000E+000
 8.001000214E+001 9.990000000E+002 1.434887505E+001 1.000000000E+000 1.000000000E+000 1.000000000E+000
 9.387000275E+001 9.990000000E+002 1.362397861E+001 1.000000000E+000 1.000000000E+000 1.000000000E+000
 1.080000000E+002 9.990000000E+002 1.276635551E+001 1.000000000E+000 1.000000000E+000 1.000000000E+000
 1.242300034E+002 9.990000000E+002 1.223605824E+001 1.000000000E+000 1.000000000E+000 1.000000000E+000
 1.428899994E+002 9.990000000E+002 1.183083534E+001 1.000000000E+000 1.000000000E+000 1.000000000E+000
 1.643399963E+002 9.990000000E+002 1.064505100E+001 1.000000000E+000 1.000000000E+000 1.000000000E+000
 1.890599976E+002 9.990000000E+002 1.071188164E+001 1.000000000E+000 1.000000000E+000 1.000000000E+000
 2.174700012E+002 9.990000000E+002 8.983716965E+000 1.000000000E+000 1.000000000E+000 1.000000000E+000
 2.501399994E+002 9.990000000E+002 7.951807022E+000 1.000000000E+000 1.000000000E+000 1.000000000E+000
 2.877300110E+002 9.990000000E+002 6.440474510E+000 1.000000000E+000 1.000000000E+000 1.000000000E+000
ZONE T="Topo_BL_W_FL_U_W_LDA01_2400_022"
 I=18, J=1, K=1, ZONETYPE=Ordered
 DATAPACKING=POINT
 DT=(SINGLE SINGLE SINGLE SINGLE SINGLE SINGLE )
 1.400000000E+001 0.000000000E+000 0.000000000E+000 5.360000134E+000 8.399999738E-001 1.567164063E-001
 1.750000000E+001 0.000000000E+000 0.000000000E+000 5.570000172E+000 8.399999738E-001 1.508078873E-001
 2.100000000E+001 0.000000000E+000 0.000000000E+000 5.760000229E+000 8.399999738E-001 1.458333284E-001
 2.625000000E+001 0.000000000E+000 0.000000000E+000 5.909999847E+000 8.299999833E-001 1.404399276E-001
 3.150000000E+001 0.000000000E+000 0.000000000E+000 6.119999886E+000 8.299999833E-001 1.356209219E-001
 3.850000000E+001 0.000000000E+000 0.000000000E+000 6.289999962E+000 8.299999833E-001 1.319554895E-001
 4.550000000E+001 0.000000000E+000 0.000000000E+000 6.420000076E+000 8.000000119E-001 1.246105954E-001
 5.250000000E+001 0.000000000E+000 0.000000000E+000 6.579999924E+000 8.000000119E-001 1.215805486E-001
 6.125000000E+001 0.000000000E+000 0.000000000E+000 6.719999790E+000 7.799999714E-001 1.160714254E-001
 7.000000000E+001 0.000000000E+000 0.000000000E+000 6.920000076E+000 7.599999905E-001 1.098265871E-001
 7.875000000E+001 0.000000000E+000 0.000000000E+000 6.929999828E+000 7.699999809E-001 1.111111119E-001
 8.750000000E+001 0.000000000E+000 0.000000000E+000 7.110000134E+000 7.400000095E-001 1.040787622E-001
 1.050000000E+002 0.000000000E+000 0.000000000E+000 7.230000019E+000 7.300000191E-001 1.009681895E-001
 1.400000000E+002 0.000000000E+000 0.000000000E+000 7.539999962E+000 6.800000072E-001 9.018567950E-002
 2.187500000E+002 0.000000000E+000 0.000000000E+000 7.900000095E+000 5.799999833E-001 7.341771573E-002
 4.200000000E+002 0.000000000E+000 0.000000000E+000 8.270000458E+000 4.399999976E-001 5.320435017E-002
 7.000000000E+002 0.000000000E+000 0.000000000E+000 8.369999886E+000 3.300000131E-001 3.942652419E-002
 1.225000000E+003 0.000000000E+000 0.000000000E+000 8.220000267E+000 3.100000024E-001 3.771289438E-002
ZONE T="Topo_BL_W_FL_U_W_LDA01_2400_002"
 I=15, J=1, K=1, ZONETYPE=Ordered
 DATAPACKING=POINT
 DT=(SINGLE SINGLE SINGLE SINGLE SINGLE SINGLE )
 1.400000000E+001 0.000000000E+000 0.000000000E+000 4.809999943E+000 9.499999881E-001 1.975051910E-001
 1.750000000E+001 0.000000000E+000 0.000000000E+000 5.119999886E+000 9.700000286E-001 1.894531399E-001
 2.100000000E+001 0.000000000E+000 0.000000000E+000 5.409999847E+000 9.599999785E-001 1.774491668E-001
 2.625000000E+001 0.000000000E+000 0.000000000E+000 5.769999981E+000 9.300000072E-001 1.611785144E-001
 3.150000000E+001 0.000000000E+000 0.000000000E+000 6.050000191E+000 9.300000072E-001 1.537190080E-001
 3.850000000E+001 0.000000000E+000 0.000000000E+000 6.400000095E+000 8.999999762E-001 1.406250000E-001
 4.550000000E+001 0.000000000E+000 0.000000000E+000 6.610000134E+000 8.700000048E-001 1.316187531E-001
 5.250000000E+001 0.000000000E+000 0.000000000E+000 6.829999924E+000 8.199999928E-001 1.200585663E-001
 6.125000000E+001 0.000000000E+000 0.000000000E+000 7.000000000E+000 7.900000215E-001 1.128571481E-001
 7.000000000E+001 0.000000000E+000 0.000000000E+000 7.130000114E+000 7.699999809E-001 1.079943851E-001
 7.875000000E+001 0.000000000E+000 0.000000000E+000 7.280000210E+000 7.300000191E-001 1.002747267E-001
 8.750000000E+001 0.000000000E+000 0.000000000E+000 7.340000153E+000 7.300000191E-001 9.945504367E-002
 9.625000000E+001 0.000000000E+000 0.000000000E+000 7.440000057E+000 7.200000286E-001 9.677419811E-002
 1.050000000E+002 0.000000000E+000 0.000000000E+000 7.519999981E+000 6.999999881E-001 9.308510274E-002
 1.400000000E+002 0.000000000E+000 0.000000000E+000 7.750000000E+000 6.800000072E-001 8.774193376E-002
ZONE T="Topo_BL_W_FL_U_W_LDA01_2400_005"
 I=16, J=1, K=1, ZONETYPE=Ordered
 DATAPACKING=POINT
 DT=(SINGLE SINGLE SINGLE SINGLE SINGLE SINGLE )
 2.100000000E+001 0.000000000E+000 0.000000000E+000 3.319999933E+000 9.599999785E-001 2.891566157E-001
 2.625000000E+001 0.000000000E+000 0.000000000E+000 3.759999990E+000 1.039999962E+000 2.765957415E-001
 3.150000000E+001 0.000000000E+000 0.000000000E+000 4.190000057E+000 1.070000052E+000 2.553699315E-001
 3.850000000E+001 0.000000000E+000 0.000000000E+000 4.550000191E+000 1.070000052E+000 2.351648360E-001
 4.550000000E+001 0.000000000E+000 0.000000000E+000 4.849999905E+000 1.059999943E+000 2.185566872E-001
 5.250000000E+001 0.000000000E+000 0.000000000E+000 5.119999886E+000 1.049999952E+000 2.050781250E-001
 6.125000000E+001 0.000000000E+000 0.000000000E+000 5.329999924E+000 1.039999962E+000 1.951219440E-001
 7.000000000E+001 0.000000000E+000 0.000000000E+000 5.599999905E+000 1.029999971E+000 1.839285642E-001
 7.875000000E+001 0.000000000E+000 0.000000000E+000 5.769999981E+000 9.900000095E-001 1.715771258E-001
 8.750000000E+001 0.000000000E+000 0.000000000E+000 5.929999828E+000 9.900000095E-001 1.669477224E-001
 1.050000000E+002 0.000000000E+000 0.000000000E+000 6.190000057E+000 9.399999976E-001 1.518578380E-001
 1.400000000E+002 0.000000000E+000 0.000000000E+000 6.639999866E+000 8.999999762E-001 1.355421692E-001
 2.187500000E+002 0.000000000E+000 0.000000000E+000 7.239999771E+000 7.900000215E-001 1.091160253E-001
 4.200000000E+002 0.000000000E+000 0.000000000E+000 8.039999962E+000 5.400000215E-001 6.716418266E-002
 7.000000000E+002 0.000000000E+000 0.000000000E+000 8.300000191E+000 3.400000036E-001 4.096385464E-002
 1.225000000E+003 0.000000000E+000 0.000000000E+000 8.210000038E+000 3.100000024E-001 3.775883093E-002
ZONE T="Topo_BL_W_FL_U_W_LDA01_2400_008"
 I=17, J=1, K=1, ZONETYPE=Ordered
 DATAPACKING=POINT
 DT=(SINGLE SINGLE SINGLE SINGLE SINGLE SINGLE )
 1.575000000E+001 0.000000000E+000 0.000000000E+000 4.670000076E+000 9.599999785E-001 2.055674493E-001
 1.750000000E+001 0.000000000E+000 0.000000000E+000 4.860000134E+000 9.800000191E-001 2.016460896E-001
 2.100000000E+001 0.000000000E+000 0.000000000E+000 5.090000153E+000 9.700000286E-001 1.905697435E-001
 2.625000000E+001 0.000000000E+000 0.000000000E+000 5.469999790E+000 9.800000191E-001 1.791590601E-001
 3.150000000E+001 0.000000000E+000 0.000000000E+000 5.769999981E+000 9.499999881E-001 1.646447182E-001
 3.850000000E+001 0.000000000E+000 0.000000000E+000 6.010000229E+000 9.399999976E-001 1.564059854E-001
 4.550000000E+001 0.000000000E+000 0.000000000E+000 6.260000229E+000 8.899999857E-001 1.421725154E-001
 5.250000000E+001 0.000000000E+000 0.000000000E+000 6.449999809E+000 8.799999952E-001 1.364341080E-001
 6.125000000E+001 0.000000000E+000 0.000000000E+000 6.550000191E+000 8.500000238E-001 1.297709942E-001
 7.000000000E+001 0.000000000E+000 0.000000000E+000 6.619999886E+000 8.500000238E-001 1.283987910E-001
 7.875000000E+001 0.000000000E+000 0.000000000E+000 6.739999771E+000 8.299999833E-001 1.231454015E-001
 8.750000000E+001 0.000000000E+000 0.000000000E+000 6.869999886E+000 8.199999928E-001 1.193595380E-001
 9.625000000E+001 0.000000000E+000 0.000000000E+000 6.900000095E+000 8.299999833E-001 1.202898547E-001
 1.050000000E+002 0.000000000E+000 0.000000000E+000 7.019999981E+000 8.199999928E-001 1.168091148E-001
 1.400000000E+002 0.000000000E+000 0.000000000E+000 7.260000229E+000 8.000000119E-001 1.101928353E-001
 1.662500000E+002 0.000000000E+000 0.000000000E+000 7.500000000E+000 8.000000119E-001 1.066666692E-001
 2.187500000E+002 0.000000000E+000 0.000000000E+000 7.750000000E+000 7.500000000E-001 9.677419066E-002
ZONE T="Topo_BL_W_FL_U_W_LDA01_2400_001"
 I=15, J=1, K=1, ZONETYPE=Ordered
 DATAPACKING=POINT
 DT=(SINGLE SINGLE SINGLE SINGLE SINGLE SINGLE )
 1.400000000E+001 0.000000000E+000 0.000000000E+000 4.679999828E+000 9.399999976E-001 2.008547038E-001
 1.750000000E+001 0.000000000E+000 0.000000000E+000 4.940000057E+000 9.399999976E-001 1.902834028E-001
 2.100000000E+001 0.000000000E+000 0.000000000E+000 5.159999847E+000 9.499999881E-001 1.841085255E-001
 2.625000000E+001 0.000000000E+000 0.000000000E+000 5.429999828E+000 9.700000286E-001 1.786372066E-001
 3.150000000E+001 0.000000000E+000 0.000000000E+000 5.719999790E+000 9.399999976E-001 1.643356681E-001
 3.850000000E+001 0.000000000E+000 0.000000000E+000 6.030000210E+000 9.200000167E-001 1.525704712E-001
 4.550000000E+001 0.000000000E+000 0.000000000E+000 6.269999981E+000 8.999999762E-001 1.435406655E-001
 5.250000000E+001 0.000000000E+000 0.000000000E+000 6.469999790E+000 8.799999952E-001 1.360123754E-001
 6.125000000E+001 0.000000000E+000 0.000000000E+000 6.619999886E+000 8.299999833E-001 1.253776401E-001
 7.000000000E+001 0.000000000E+000 0.000000000E+000 6.900000095E+000 7.799999714E-001 1.130434722E-001
 7.875000000E+001 0.000000000E+000 0.000000000E+000 6.989999771E+000 7.699999809E-001 1.101573706E-001
 8.750000000E+001 0.000000000E+000 0.000000000E+000 7.130000114E+000 7.400000095E-001 1.037868187E-001
 9.625000000E+001 0.000000000E+000 0.000000000E+000 7.170000076E+000 7.200000286E-001 1.004184112E-001
 1.050000000E+002 0.000000000E+000 0.000000000E+000 7.309999943E+000 7.099999785E-001 9.712722152E-002
 1.400000000E+002 0.000000000E+000 0.000000000E+000 7.530000210E+000 6.800000072E-001 9.030544013E-002
ZONE T="Topo_BL_W_FL_U_W_LDA01_2400_009"
 I=16, J=1, K=1, ZONETYPE=Ordered
 DATAPACKING=POINT
 DT=(SINGLE SINGLE SINGLE SINGLE SINGLE SINGLE )
 1.750000000E+001 0.000000000E+000 0.000000000E+000 4.730000019E+000 9.499999881E-001 2.008456588E-001
 2.100000000E+001 0.000000000E+000 0.000000000E+000 4.940000057E+000 9.800000191E-001 1.983805746E-001
 2.625000000E+001 0.000000000E+000 0.000000000E+000 5.230000019E+000 9.800000191E-001 1.873804927E-001
 3.150000000E+001 0.000000000E+000 0.000000000E+000 5.460000038E+000 9.499999881E-001 1.739926636E-001
 3.850000000E+001 0.000000000E+000 0.000000000E+000 5.760000229E+000 9.499999881E-001 1.649305522E-001
 4.550000000E+001 0.000000000E+000 0.000000000E+000 5.940000057E+000 9.399999976E-001 1.582491547E-001
 5.250000000E+001 0.000000000E+000 0.000000000E+000 6.099999905E+000 9.200000167E-001 1.508196741E-001
 6.125000000E+001 0.000000000E+000 0.000000000E+000 6.320000172E+000 8.700000048E-001 1.376582235E-001
 7.000000000E+001 0.000000000E+000 0.000000000E+000 6.449999809E+000 8.700000048E-001 1.348837316E-001
 7.875000000E+001 0.000000000E+000 0.000000000E+000 6.599999905E+000 8.399999738E-001 1.272727251E-001
 8.750000000E+001 0.000000000E+000 0.000000000E+000 6.670000076E+000 8.299999833E-001 1.244377792E-001
 9.625000000E+001 0.000000000E+000 0.000000000E+000 6.769999981E+000 8.100000024E-001 1.196454987E-001
 1.050000000E+002 0.000000000E+000 0.000000000E+000 6.820000172E+000 8.399999738E-001 1.231671497E-001
 1.400000000E+002 0.000000000E+000 0.000000000E+000 7.099999905E+000 7.900000215E-001 1.112676114E-001
 1.662500000E+002 0.000000000E+000 0.000000000E+000 7.289999962E+000 8.000000119E-001 1.097393706E-001
 2.187500000E+002 0.000000000E+000 0.000000000E+000 7.639999866E+000 7.599999905E-001 9.947644174E-002
ZONE T="Topo_BL_W_FL_U_W_LDA01_2400_010"
 I=16, J=1, K=1, ZONETYPE=Ordered
 DATAPACKING=POINT
 DT=(SINGLE SINGLE SINGLE SINGLE SINGLE SINGLE )
 2.100000000E+001 0.000000000E+000 0.000000000E+000 3.890000105E+000 8.500000238E-001 2.185090035E-001
 2.625000000E+001 0.000000000E+000 0.000000000E+000 4.099999905E+000 8.799999952E-001 2.146341503E-001
 3.150000000E+001 0.000000000E+000 0.000000000E+000 4.400000095E+000 9.599999785E-001 2.181818038E-001
 3.850000000E+001 0.000000000E+000 0.000000000E+000 4.820000172E+000 9.900000095E-001 2.053941786E-001
 4.550000000E+001 0.000000000E+000 0.000000000E+000 5.170000076E+000 1.000000000E+000 1.934235990E-001
 5.250000000E+001 0.000000000E+000 0.000000000E+000 5.510000229E+000 9.800000191E-001 1.778584421E-001
 6.125000000E+001 0.000000000E+000 0.000000000E+000 5.769999981E+000 9.300000072E-001 1.611785144E-001
 7.000000000E+001 0.000000000E+000 0.000000000E+000 5.960000038E+000 8.999999762E-001 1.510067135E-001
 7.875000000E+001 0.000000000E+000 0.000000000E+000 6.170000076E+000 8.700000048E-001 1.410048604E-001
 8.750000000E+001 0.000000000E+000 0.000000000E+000 6.320000172E+000 8.700000048E-001 1.376582235E-001
 1.050000000E+002 0.000000000E+000 0.000000000E+000 6.500000000E+000 8.500000238E-001 1.307692379E-001
 1.400000000E+002 0.000000000E+000 0.000000000E+000 6.889999866E+000 7.699999809E-001 1.117561683E-001
 2.187500000E+002 0.000000000E+000 0.000000000E+000 7.420000076E+000 6.899999976E-001 9.299191087E-002
 4.200000000E+002 0.000000000E+000 0.000000000E+000 8.039999962E+000 5.199999809E-001 6.467661262E-002
 7.000000000E+002 0.000000000E+000 0.000000000E+000 8.279999733E+000 3.600000143E-001 4.347826540E-002
 1.225000000E+003 0.000000000E+000 0.000000000E+000 8.220000267E+000 3.300000131E-001 4.014598578E-002
ZONE T="Topo_BL_W_FL_U_W_LDA01_2400_012"
 I=16, J=1, K=1, ZONETYPE=Ordered
 DATAPACKING=POINT
 DT=(SINGLE SINGLE SINGLE SINGLE SINGLE SINGLE )
 1.750000000E+001 0.000000000E+000 0.000000000E+000 4.550000191E+000 9.300000072E-001 2.043955922E-001
 2.100000000E+001 0.000000000E+000 0.000000000E+000 4.699999809E+000 9.499999881E-001 2.021276653E-001
 2.625000000E+001 0.000000000E+000 0.000000000E+000 5.059999943E+000 9.499999881E-001 1.877470315E-001
 3.150000000E+001 0.000000000E+000 0.000000000E+000 5.349999905E+000 9.599999785E-001 1.794392467E-001
 3.850000000E+001 0.000000000E+000 0.000000000E+000 5.690000057E+000 9.599999785E-001 1.687170416E-001
 4.550000000E+001 0.000000000E+000 0.000000000E+000 5.960000038E+000 9.300000072E-001 1.560402662E-001
 5.250000000E+001 0.000000000E+000 0.000000000E+000 6.199999809E+000 9.100000262E-001 1.467742026E-001
 6.125000000E+001 0.000000000E+000 0.000000000E+000 6.369999886E+000 8.799999952E-001 1.381475627E-001
 7.000000000E+001 0.000000000E+000 0.000000000E+000 6.579999924E+000 8.500000238E-001 1.291793436E-001
 7.875000000E+001 0.000000000E+000 0.000000000E+000 6.699999809E+000 8.299999833E-001 1.238805950E-001
 8.750000000E+001 0.000000000E+000 0.000000000E+000 6.849999905E+000 7.900000215E-001 1.153284684E-001
 9.625000000E+001 0.000000000E+000 0.000000000E+000 6.949999809E+000 7.900000215E-001 1.136690676E-001
 1.050000000E+002 0.000000000E+000 0.000000000E+000 7.059999943E+000 7.599999905E-001 1.076487228E-001
 1.400000000E+002 0.000000000E+000 0.000000000E+000 7.349999905E+000 7.400000095E-001 1.006802768E-001
 1.662500000E+002 0.000000000E+000 0.000000000E+000 7.500000000E+000 6.999999881E-001 9.333333373E-002
 2.187500000E+002 0.000000000E+000 0.000000000E+000 7.780000210E+000 6.899999976E-001 8.868893981E-002
ZONE T="Topo_BL_W_FL_U_W_LDA01_2400_013"
 I=16, J=1, K=1, ZONETYPE=Ordered
 DATAPACKING=POINT
 DT=(SINGLE SINGLE SINGLE SINGLE SINGLE SINGLE )
 2.100000000E+001 0.000000000E+000 0.000000000E+000 3.809999943E+000 9.300000072E-001 2.440944910E-001
 2.625000000E+001 0.000000000E+000 0.000000000E+000 3.849999905E+000 9.499999881E-001 2.467532456E-001
 3.150000000E+001 0.000000000E+000 0.000000000E+000 4.280000210E+000 9.900000095E-001 2.313084006E-001
 3.850000000E+001 0.000000000E+000 0.000000000E+000 4.699999809E+000 9.599999785E-001 2.042553276E-001
 4.550000000E+001 0.000000000E+000 0.000000000E+000 4.989999771E+000 9.700000286E-001 1.943887919E-001
 5.250000000E+001 0.000000000E+000 0.000000000E+000 5.199999809E+000 9.599999785E-001 1.846153885E-001
 6.125000000E+001 0.000000000E+000 0.000000000E+000 5.460000038E+000 9.700000286E-001 1.776556820E-001
 7.000000000E+001 0.000000000E+000 0.000000000E+000 5.650000095E+000 9.700000286E-001 1.716814190E-001
 7.875000000E+001 0.000000000E+000 0.000000000E+000 5.849999905E+000 9.700000286E-001 1.658119708E-001
 8.750000000E+001 0.000000000E+000 0.000000000E+000 5.929999828E+000 9.599999785E-001 1.618887037E-001
 1.050000000E+002 0.000000000E+000 0.000000000E+000 6.170000076E+000 9.300000072E-001 1.507293284E-001
 1.400000000E+002 0.000000000E+000 0.000000000E+000 6.550000191E+000 8.899999857E-001 1.358778626E-001
 2.187500000E+002 0.000000000E+000 0.000000000E+000 7.210000038E+000 7.799999714E-001 1.081830710E-001
 4.200000000E+002 0.000000000E+000 0.000000000E+000 7.969999790E+000 5.500000119E-001 6.900878996E-002
 7.000000000E+002 0.000000000E+000 0.000000000E+000 8.289999962E+000 3.499999940E-001 4.221954197E-002
 1.225000000E+003 0.000000000E+000 0.000000000E+000 8.229999542E+000 3.100000024E-001 3.766707331E-002
ZONE T="Topo_BL_W_FL_U_W_LDA01_2400_014"
 I=16, J=1, K=1, ZONETYPE=Ordered
 DATAPACKING=POINT