TITLE     = ""
VARIABLES = "Z<sub>fs</sub>  [m]"
"I<sub>W</sub>  [-]"
"I<sub>W</sub>  [%]"
"V4"
"V5"
"V6"
ZONE T="VDI slightly rough (lower bound)"
 I=8, J=1, K=1, ZONETYPE=Ordered
 DATAPACKING=POINT
 DT=(SINGLE SINGLE SINGLE SINGLE SINGLE SINGLE )
 3.014500122E+002 1.100999955E-002 1.100999951E+000 1.000000000E+000 1.000000000E+000 1.000000000E+000
 2.498110046E+002 1.408830006E-002 1.408830047E+000 1.000000000E+000 1.000000000E+000 1.000000000E+000
 1.999369965E+002 1.716480032E-002 1.716480017E+000 1.000000000E+000 1.000000000E+000 1.000000000E+000
 1.505039978E+002 2.099639922E-002 2.099639893E+000 1.000000000E+000 1.000000000E+000 1.000000000E+000
 1.010719986E+002 2.180540003E-002 2.180540085E+000 1.000000000E+000 1.000000000E+000 1.000000000E+000
 4.899119949E+001 2.639549971E-002 2.639549971E+000 1.000000000E+000 1.000000000E+000 1.000000000E+000
 3.001259995E+001 3.095000051E-002 3.095000029E+000 1.000000000E+000 1.000000000E+000 1.000000000E+000
 1.103400040E+001 4.230539873E-002 4.230539799E+000 1.000000000E+000 1.000000000E+000 1.000000000E+000
ZONE T="VDI slightly rough (upper bound)"
 I=8, J=1, K=1, ZONETYPE=Ordered
 DATAPACKING=POINT
 DT=(SINGLE SINGLE SINGLE SINGLE SINGLE SINGLE )
 VARSHARELIST = ([4-6]=1)
 3.005669861E+002 3.519229963E-002 3.519229889E+000
 2.502519989E+002 3.864699975E-002 3.864700079E+000
 1.994960022E+002 4.210219905E-002 4.210219860E+000
 1.505039978E+002 4.366640002E-002 4.366640091E+000
 1.015130005E+002 4.900889844E-002 4.900889874E+000
 4.854980087E+001 5.964529887E-002 5.964529991E+000
 2.824720001E+001 6.797949970E-002 6.797949791E+000
 9.709959984E+000 8.046799898E-002 8.046799660E+000
ZONE T="VDI m‰ﬂig rau (untere Grenze)"
 I=8, J=1, K=1, ZONETYPE=Ordered
 DATAPACKING=POINT
 DT=(SINGLE SINGLE SINGLE SINGLE SINGLE SINGLE )
 VARSHARELIST = ([4-6]=1)
 3.005669861E+002 3.519229963E-002 3.519229889E+000
 2.502519989E+002 3.864699975E-002 3.864700079E+000
 1.994960022E+002 4.210219905E-002 4.210219860E+000
 1.505039978E+002 4.366640002E-002 4.366640091E+000
 1.015130005E+002 4.900889844E-002 4.900889874E+000
 4.854980087E+001 5.964529887E-002 5.964529991E+000
 2.824720001E+001 6.797949970E-002 6.797949791E+000
 9.710000038E+000 8.046799898E-002 8.046799660E+000
ZONE T="VDI moderately rough (upper bound)"
 I=8, J=1, K=1, ZONETYPE=Ordered
 DATAPACKING=POINT
 DT=(SINGLE SINGLE SINGLE SINGLE SINGLE SINGLE )
 VARSHARELIST = ([4-6]=1)
 3.010090027E+002 6.088440120E-002 6.088439941E+000
 2.493690033E+002 6.358490139E-002 6.358489990E+000
 1.999369965E+002 6.628309935E-002 6.628310204E+000
 1.496219940E+002 7.200480253E-002 7.200479984E+000
 1.010719986E+002 8.074729890E-002 8.074729919E+000
 4.943249893E+001 9.478279948E-002 9.478280067E+000
 2.912989998E+001 1.046279967E-001 1.046280003E+001
 1.059270000E+001 1.216510013E-001 1.216510010E+001
ZONE T="VDI rau (untere Grenze)"
 I=8, J=1, K=1, ZONETYPE=Ordered
 DATAPACKING=POINT
 DT=(SINGLE SINGLE SINGLE SINGLE SINGLE SINGLE )
 VARSHARELIST = ([4-6]=1)
 3.010090027E+002 6.088440120E-002 6.088439941E+000
 2.493690033E+002 6.358490139E-002 6.358489990E+000
 1.999369965E+002 6.628309935E-002 6.628310204E+000
 1.496219940E+002 7.200480253E-002 7.200479984E+000
 1.010719986E+002 8.074729890E-002 8.074729919E+000
 4.943249893E+001 9.478279948E-002 9.478280067E+000
 2.912989998E+001 1.046279967E-001 1.046280003E+001
 1.059270000E+001 1.216510013E-001 1.216510010E+001
ZONE T="VDI rau (untere Grenze)"
 I=8, J=1, K=1, ZONETYPE=Ordered
 DATAPACKING=POINT
 DT=(SINGLE SINGLE SINGLE SINGLE SINGLE SINGLE )
 VARSHARELIST = ([4-6]=1)
 3.071879883E+002 8.316989988E-002 8.316989899E+000
 2.502519989E+002 8.889880031E-002 8.889880180E+000
 1.999369965E+002 9.462060034E-002 9.462059975E+000
 1.505039978E+002 1.026080027E-001 1.026080036E+001
 1.006309967E+002 1.128640026E-001 1.128639984E+001
 4.987390137E+001 1.321880072E-001 1.321879959E+001
 2.780579948E+001 1.499699950E-001 1.499699974E+001
 1.588899994E+001 1.730300039E-001 1.730299950E+001
ZONE T="VDI very rough (lower bound)"
 I=8, J=1, K=1, ZONETYPE=Ordered
 DATAPACKING=POINT
 DT=(SINGLE SINGLE SINGLE SINGLE SINGLE SINGLE )
 VARSHARELIST = ([4-6]=1)
 3.071879883E+002 8.316989988E-002 8.316989899E+000
 2.502519989E+002 8.889880031E-002 8.889880180E+000
 1.999369965E+002 9.462060034E-002 9.462059975E+000
 1.505039978E+002 1.026080027E-001 1.026080036E+001
 1.006309967E+002 1.128640026E-001 1.128639984E+001
 4.987390137E+001 1.321880072E-001 1.321879959E+001
 2.780579948E+001 1.499699950E-001 1.499699974E+001
 1.588899994E+001 1.730300039E-001 1.730299950E+001
ZONE T="VDI very rough (upper bound)"
 I=12, J=1, K=1, ZONETYPE=Ordered
 DATAPACKING=POINT
 DT=(SINGLE SINGLE SINGLE SINGLE SINGLE SINGLE )
 3.146910095E+002 1.156549975E-001 1.156550026E+001 1.000000000E+000 1.000000000E+000 1.000000000E+000
 3.018919983E+002 1.175580025E-001 1.175580025E+001 1.000000000E+000 1.000000000E+000 1.000000000E+000
 2.493690033E+002 1.240380034E-001 1.240380001E+001 1.000000000E+000 1.000000000E+000 1.000000000E+000
 1.994960022E+002 1.316490024E-001 1.316489983E+001 1.000000000E+000 1.000000000E+000 1.000000000E+000
 1.509459991E+002 1.396359950E-001 1.396360016E+001 1.000000000E+000 1.000000000E+000 1.000000000E+000
 1.010719986E+002 1.559360027E-001 1.559360027E+001 1.000000000E+000 1.000000000E+000 1.000000000E+000
 6.620429993E+001 1.733539999E-001 1.733539963E+001 1.000000000E+000 1.000000000E+000 1.000000000E+000
 4.237070084E+001 2.009620070E-001 2.009620094E+001 1.000000000E+000 1.000000000E+000 1.000000000E+000
 3.442620087E+001 2.191060036E-001 2.191060066E+001 1.000000000E+000 1.000000000E+000 1.000000000E+000
 3.177809906E+001 2.380010039E-001 2.380010033E+001 1.000000000E+000 1.000000000E+000 1.000000000E+000
 2.868849945E+001 2.587850094E-001 2.587849998E+001 1.000000000E+000 1.000000000E+000 1.000000000E+000
 2.559900093E+001 2.848590016E-001 2.848590088E+001 1.000000000E+000 1.000000000E+000 1.000000000E+000
ZONE T="ZONE 001"
 I=25, J=1, K=1, ZONETYPE=Ordered
 DATAPACKING=POINT
 DT=(SINGLE SINGLE SINGLE SINGLE SINGLE SINGLE )
 9.810000420E+000 9.990000000E+002 1.078459358E+001 1.000000000E+000 1.000000000E+000 1.000000000E+000
 1.127999973E+001 9.990000000E+002 1.096551704E+001 1.000000000E+000 1.000000000E+000 1.000000000E+000
 1.296000004E+001 9.990000000E+002 1.095046806E+001 1.000000000E+000 1.000000000E+000 1.000000000E+000
 1.490999985E+001 9.990000000E+002 1.115475273E+001 1.000000000E+000 1.000000000E+000 1.000000000E+000
 1.715999985E+001 9.990000000E+002 1.105651093E+001 1.000000000E+000 1.000000000E+000 1.000000000E+000
 1.973999977E+001 9.990000000E+002 1.117318439E+001 1.000000000E+000 1.000000000E+000 1.000000000E+000
 2.268000031E+001 9.990000000E+002 1.115671635E+001 1.000000000E+000 1.000000000E+000 1.000000000E+000
 2.610000038E+001 9.990000000E+002 1.115007877E+001 1.000000000E+000 1.000000000E+000 1.000000000E+000
 3.003000069E+001 9.990000000E+002 1.094344139E+001 1.000000000E+000 1.000000000E+000 1.000000000E+000
 3.452999878E+001 9.990000000E+002 1.087133980E+001 1.000000000E+000 1.000000000E+000 1.000000000E+000
 3.972000122E+001 9.990000000E+002 1.076192665E+001 1.000000000E+000 1.000000000E+000 1.000000000E+000
 4.568999863E+001 9.990000000E+002 1.053213882E+001 1.000000000E+000 1.000000000E+000 1.000000000E+000
 5.256000137E+001 9.990000000E+002 1.032686996E+001 1.000000000E+000 1.000000000E+000 1.000000000E+000
 6.045000076E+001 9.990000000E+002 1.005568981E+001 1.000000000E+000 1.000000000E+000 1.000000000E+000
 6.954000092E+001 9.990000000E+002 9.736516953E+000 1.000000000E+000 1.000000000E+000 1.000000000E+000
 8.001000214E+001 9.990000000E+002 9.515675545E+000 1.000000000E+000 1.000000000E+000 1.000000000E+000
 9.387000275E+001 9.990000000E+002 9.381082535E+000 1.000000000E+000 1.000000000E+000 1.000000000E+000
 1.080000000E+002 9.990000000E+002 8.700934410E+000 1.000000000E+000 1.000000000E+000 1.000000000E+000
 1.242300034E+002 9.990000000E+002 8.572460175E+000 1.000000000E+000 1.000000000E+000 1.000000000E+000
 1.428899994E+002 9.990000000E+002 8.342255592E+000 1.000000000E+000 1.000000000E+000 1.000000000E+000
 1.643399963E+002 9.990000000E+002 7.994510174E+000 1.000000000E+000 1.000000000E+000 1.000000000E+000
 1.890599976E+002 9.990000000E+002 7.590036869E+000 1.000000000E+000 1.000000000E+000 1.000000000E+000
 2.174700012E+002 9.990000000E+002 6.882168770E+000 1.000000000E+000 1.000000000E+000 1.000000000E+000
 2.501399994E+002 9.990000000E+002 6.210649014E+000 1.000000000E+000 1.000000000E+000 1.000000000E+000
 2.877300110E+002 9.990000000E+002 5.622279167E+000 1.000000000E+000 1.000000000E+000 1.000000000E+000
ZONE T="ZONE 001"
 I=19, J=1, K=1, ZONETYPE=Ordered
 DATAPACKING=POINT
 DT=(SINGLE SINGLE SINGLE SINGLE SINGLE SINGLE )
 2.268000031E+001 9.990000000E+002 1.115671635E+001 1.000000000E+000 1.000000000E+000 1.000000000E+000
 2.610000038E+001 9.990000000E+002 1.115007877E+001 1.000000000E+000 1.000000000E+000 1.000000000E+000
 3.003000069E+001 9.990000000E+002 1.094344139E+001 1.000000000E+000 1.000000000E+000 1.000000000E+000
 3.452999878E+001 9.990000000E+002 1.087133980E+001 1.000000000E+000 1.000000000E+000 1.000000000E+000
 3.972000122E+001 9.990000000E+002 1.076192665E+001 1.000000000E+000 1.000000000E+000 1.000000000E+000
 4.568999863E+001 9.990000000E+002 1.053213882E+001 1.000000000E+000 1.000000000E+000 1.000000000E+000
 5.256000137E+001 9.990000000E+002 1.032686996E+001 1.000000000E+000 1.000000000E+000 1.000000000E+000
 6.045000076E+001 9.990000000E+002 1.005568981E+001 1.000000000E+000 1.000000000E+000 1.000000000E+000
 6.954000092E+001 9.990000000E+002 9.736516953E+000 1.000000000E+000 1.000000000E+000 1.000000000E+000
 8.001000214E+001 9.990000000E+002 9.515675545E+000 1.000000000E+000 1.000000000E+000 1.000000000E+000
 9.387000275E+001 9.990000000E+002 9.381082535E+000 1.000000000E+000 1.000000000E+000 1.000000000E+000
 1.080000000E+002 9.990000000E+002 8.700934410E+000 1.000000000E+000 1.000000000E+000 1.000000000E+000
 1.242300034E+002 9.990000000E+002 8.572460175E+000 1.000000000E+000 1.000000000E+000 1.000000000E+000
 1.428899994E+002 9.990000000E+002 8.342255592E+000 1.000000000E+000 1.000000000E+000 1.000000000E+000
 1.643399963E+002 9.990000000E+002 7.994510174E+000 1.000000000E+000 1.000000000E+000 1.000000000E+000
 1.890599976E+002 9.990000000E+002 7.590036869E+000 1.000000000E+000 1.000000000E+000 1.000000000E+000
 2.174700012E+002 9.990000000E+002 6.882168770E+000 1.000000000E+000 1.000000000E+000 1.000000000E+000
 2.501399994E+002 9.990000000E+002 6.210649014E+000 1.000000000E+000 1.000000000E+000 1.000000000E+000
 2.877300110E+002 9.990000000E+002 5.622279167E+000 1.000000000E+000 1.000000000E+000 1.000000000E+000
ZONE T="Topo_BL_W_FL_U_W_LDA01_2400_022"
 I=18, J=1, K=1, ZONETYPE=Ordered
 DATAPACKING=POINT
 DT=(SINGLE SINGLE SINGLE SINGLE SINGLE SINGLE )
 1.400000000E+001 0.000000000E+000 0.000000000E+000 5.360000134E+000 4.199999869E-001 7.835820317E-002
 1.750000000E+001 0.000000000E+000 0.000000000E+000 5.570000172E+000 4.300000072E-001 7.719928026E-002
 2.100000000E+001 0.000000000E+000 0.000000000E+000 5.760000229E+000 4.199999869E-001 7.291666418E-002
 2.625000000E+001 0.000000000E+000 0.000000000E+000 5.909999847E+000 4.199999869E-001 7.106599212E-002
 3.150000000E+001 0.000000000E+000 0.000000000E+000 6.119999886E+000 4.300000072E-001 7.026144117E-002
 3.850000000E+001 0.000000000E+000 0.000000000E+000 6.289999962E+000 4.199999869E-001 6.677265465E-002
 4.550000000E+001 0.000000000E+000 0.000000000E+000 6.420000076E+000 4.199999869E-001 6.542056054E-002
 5.250000000E+001 0.000000000E+000 0.000000000E+000 6.579999924E+000 4.199999869E-001 6.382978708E-002
 6.125000000E+001 0.000000000E+000 0.000000000E+000 6.719999790E+000 4.199999869E-001 6.250000000E-002
 7.000000000E+001 0.000000000E+000 0.000000000E+000 6.920000076E+000 4.199999869E-001 6.069364026E-002
 7.875000000E+001 0.000000000E+000 0.000000000E+000 6.929999828E+000 4.199999869E-001 6.060605869E-002
 8.750000000E+001 0.000000000E+000 0.000000000E+000 7.110000134E+000 4.099999964E-001 5.766525865E-002
 1.050000000E+002 0.000000000E+000 0.000000000E+000 7.230000019E+000 4.000000060E-001 5.532503501E-002
 1.400000000E+002 0.000000000E+000 0.000000000E+000 7.539999962E+000 3.799999952E-001 5.039787665E-002
 2.187500000E+002 0.000000000E+000 0.000000000E+000 7.900000095E+000 3.400000036E-001 4.303797334E-002
 4.200000000E+002 0.000000000E+000 0.000000000E+000 8.270000458E+000 2.899999917E-001 3.506650403E-002
 7.000000000E+002 0.000000000E+000 0.000000000E+000 8.369999886E+000 2.500000000E-001 2.986857854E-002
 1.225000000E+003 0.000000000E+000 0.000000000E+000 8.220000267E+000 2.199999988E-001 2.676398866E-002
ZONE T="Topo_BL_W_FL_U_W_LDA01_2400_002"
 I=15, J=1, K=1, ZONETYPE=Ordered
 DATAPACKING=POINT
 DT=(SINGLE SINGLE SINGLE SINGLE SINGLE SINGLE )
 1.400000000E+001 0.000000000E+000 0.000000000E+000 4.809999943E+000 5.400000215E-001 1.122661158E-001
 1.750000000E+001 0.000000000E+000 0.000000000E+000 5.119999886E+000 5.299999714E-001 1.035156250E-001
 2.100000000E+001 0.000000000E+000 0.000000000E+000 5.409999847E+000 5.199999809E-001 9.611830115E-002
 2.625000000E+001 0.000000000E+000 0.000000000E+000 5.769999981E+000 4.900000095E-001 8.492201567E-002
 3.150000000E+001 0.000000000E+000 0.000000000E+000 6.050000191E+000 4.799999893E-001 7.933884114E-002
 3.850000000E+001 0.000000000E+000 0.000000000E+000 6.400000095E+000 4.499999881E-001 7.031250000E-002
 4.550000000E+001 0.000000000E+000 0.000000000E+000 6.610000134E+000 4.199999869E-001 6.354008615E-002
 5.250000000E+001 0.000000000E+000 0.000000000E+000 6.829999924E+000 4.099999964E-001 6.002928317E-002
 6.125000000E+001 0.000000000E+000 0.000000000E+000 7.000000000E+000 4.000000060E-001 5.714285746E-002
 7.000000000E+001 0.000000000E+000 0.000000000E+000 7.130000114E+000 4.000000060E-001 5.610098317E-002
 7.875000000E+001 0.000000000E+000 0.000000000E+000 7.280000210E+000 3.899999857E-001 5.357142538E-002
 8.750000000E+001 0.000000000E+000 0.000000000E+000 7.340000153E+000 3.899999857E-001 5.313351378E-002
 9.625000000E+001 0.000000000E+000 0.000000000E+000 7.440000057E+000 3.899999857E-001 5.241935328E-002
 1.050000000E+002 0.000000000E+000 0.000000000E+000 7.519999981E+000 3.899999857E-001 5.186169967E-002
 1.400000000E+002 0.000000000E+000 0.000000000E+000 7.750000000E+000 3.799999952E-001 4.903225601E-002
ZONE T="Topo_BL_W_FL_U_W_LDA01_2400_005"
 I=16, J=1, K=1, ZONETYPE=Ordered
 DATAPACKING=POINT
 DT=(SINGLE SINGLE SINGLE SINGLE SINGLE SINGLE )
 2.100000000E+001 0.000000000E+000 0.000000000E+000 3.319999933E+000 5.699999928E-001 1.716867536E-001
 2.625000000E+001 0.000000000E+000 0.000000000E+000 3.759999990E+000 6.000000238E-001 1.595744789E-001
 3.150000000E+001 0.000000000E+000 0.000000000E+000 4.190000057E+000 5.899999738E-001 1.408114433E-001
 3.850000000E+001 0.000000000E+000 0.000000000E+000 4.550000191E+000 5.699999928E-001 1.252747178E-001
 4.550000000E+001 0.000000000E+000 0.000000000E+000 4.849999905E+000 5.699999928E-001 1.175257713E-001
 5.250000000E+001 0.000000000E+000 0.000000000E+000 5.119999886E+000 5.600000024E-001 1.093750000E-001
 6.125000000E+001 0.000000000E+000 0.000000000E+000 5.329999924E+000 5.600000024E-001 1.050656661E-001
 7.000000000E+001 0.000000000E+000 0.000000000E+000 5.599999905E+000 5.600000024E-001 1.000000015E-001
 7.875000000E+001 0.000000000E+000 0.000000000E+000 5.769999981E+000 5.500000119E-001 9.532062709E-002
 8.750000000E+001 0.000000000E+000 0.000000000E+000 5.929999828E+000 5.500000119E-001 9.274873883E-002
 1.050000000E+002 0.000000000E+000 0.000000000E+000 6.190000057E+000 5.400000215E-001 8.723748475E-002
 1.400000000E+002 0.000000000E+000 0.000000000E+000 6.639999866E+000 5.299999714E-001 7.981927693E-002
 2.187500000E+002 0.000000000E+000 0.000000000E+000 7.239999771E+000 4.699999988E-001 6.491713226E-002
 4.200000000E+002 0.000000000E+000 0.000000000E+000 8.039999962E+000 3.400000036E-001 4.228855669E-002
 7.000000000E+002 0.000000000E+000 0.000000000E+000 8.300000191E+000 2.500000000E-001 3.012048081E-002
 1.225000000E+003 0.000000000E+000 0.000000000E+000 8.210000038E+000 2.199999988E-001 2.679658867E-002
ZONE T="Topo_BL_W_FL_U_W_LDA01_2400_008"
 I=17, J=1, K=1, ZONETYPE=Ordered
 DATAPACKING=POINT
 DT=(SINGLE SINGLE SINGLE SINGLE SINGLE SINGLE )
 1.575000000E+001 0.000000000E+000 0.000000000E+000 4.670000076E+000 5.099999905E-001 1.092077047E-001
 1.750000000E+001 0.000000000E+000 0.000000000E+000 4.860000134E+000 5.199999809E-001 1.069958806E-001
 2.100000000E+001 0.000000000E+000 0.000000000E+000 5.090000153E+000 5.099999905E-001 1.001964584E-001
 2.625000000E+001 0.000000000E+000 0.000000000E+000 5.469999790E+000 4.900000095E-001 8.957953006E-002
 3.150000000E+001 0.000000000E+000 0.000000000E+000 5.769999981E+000 4.799999893E-001 8.318890631E-002
 3.850000000E+001 0.000000000E+000 0.000000000E+000 6.010000229E+000 4.699999988E-001 7.820299268E-002
 4.550000000E+001 0.000000000E+000 0.000000000E+000 6.260000229E+000 4.699999988E-001 7.507986575E-002
 5.250000000E+001 0.000000000E+000 0.000000000E+000 6.449999809E+000 4.600000083E-001 7.131782919E-002
 6.125000000E+001 0.000000000E+000 0.000000000E+000 6.550000191E+000 4.699999988E-001 7.175572217E-002
 7.000000000E+001 0.000000000E+000 0.000000000E+000 6.619999886E+000 4.699999988E-001 7.099697739E-002
 7.875000000E+001 0.000000000E+000 0.000000000E+000 6.739999771E+000 4.799999893E-001 7.121662050E-002
 8.750000000E+001 0.000000000E+000 0.000000000E+000 6.869999886E+000 4.799999893E-001 6.986899674E-002
 9.625000000E+001 0.000000000E+000 0.000000000E+000 6.900000095E+000 4.900000095E-001 7.101449370E-002
 1.050000000E+002 0.000000000E+000 0.000000000E+000 7.019999981E+000 4.900000095E-001 6.980057061E-002
 1.400000000E+002 0.000000000E+000 0.000000000E+000 7.260000229E+000 4.900000095E-001 6.749311090E-002
 1.662500000E+002 0.000000000E+000 0.000000000E+000 7.500000000E+000 4.799999893E-001 6.399999559E-002
 2.187500000E+002 0.000000000E+000 0.000000000E+000 7.750000000E+000 4.600000083E-001 5.935483798E-002
ZONE T="Topo_BL_W_FL_U_W_LDA01_2400_001"
 I=15, J=1, K=1, ZONETYPE=Ordered
 DATAPACKING=POINT
 DT=(SINGLE SINGLE SINGLE SINGLE SINGLE SINGLE )
 1.400000000E+001 0.000000000E+000 0.000000000E+000 4.679999828E+000 5.299999714E-001 1.132478639E-001
 1.750000000E+001 0.000000000E+000 0.000000000E+000 4.940000057E+000 5.299999714E-001 1.072874442E-001
 2.100000000E+001 0.000000000E+000 0.000000000E+000 5.159999847E+000 5.299999714E-001 1.027131751E-001
 2.625000000E+001 0.000000000E+000 0.000000000E+000 5.429999828E+000 5.199999809E-001 9.576427191E-002
 3.150000000E+001 0.000000000E+000 0.000000000E+000 5.719999790E+000 5.099999905E-001 8.916083723E-002
 3.850000000E+001 0.000000000E+000 0.000000000E+000 6.030000210E+000 4.900000095E-001 8.126036078E-002
 4.550000000E+001 0.000000000E+000 0.000000000E+000 6.269999981E+000 4.699999988E-001 7.496012747E-002
 5.250000000E+001 0.000000000E+000 0.000000000E+000 6.469999790E+000 4.499999881E-001 6.955178082E-002
 6.125000000E+001 0.000000000E+000 0.000000000E+000 6.619999886E+000 4.199999869E-001 6.344410777E-002
 7.000000000E+001 0.000000000E+000 0.000000000E+000 6.900000095E+000 4.099999964E-001 5.942028761E-002
 7.875000000E+001 0.000000000E+000 0.000000000E+000 6.989999771E+000 4.000000060E-001 5.722460896E-002
 8.750000000E+001 0.000000000E+000 0.000000000E+000 7.130000114E+000 3.899999857E-001 5.469845608E-002
 9.625000000E+001 0.000000000E+000 0.000000000E+000 7.170000076E+000 3.899999857E-001 5.439330265E-002
 1.050000000E+002 0.000000000E+000 0.000000000E+000 7.309999943E+000 3.799999952E-001 5.198358372E-002
 1.400000000E+002 0.000000000E+000 0.000000000E+000 7.530000210E+000 3.799999952E-001 5.046480522E-002
ZONE T="Topo_BL_W_FL_U_W_LDA01_2400_009"
 I=16, J=1, K=1, ZONETYPE=Ordered
 DATAPACKING=POINT
 DT=(SINGLE SINGLE SINGLE SINGLE SINGLE SINGLE )
 1.750000000E+001 0.000000000E+000 0.000000000E+000 4.730000019E+000 5.099999905E-001 1.078224108E-001
 2.100000000E+001 0.000000000E+000 0.000000000E+000 4.940000057E+000 5.199999809E-001 1.052631512E-001
 2.625000000E+001 0.000000000E+000 0.000000000E+000 5.230000019E+000 5.099999905E-001 9.751433879E-002
 3.150000000E+001 0.000000000E+000 0.000000000E+000 5.460000038E+000 5.099999905E-001 9.340658784E-002
 3.850000000E+001 0.000000000E+000 0.000000000E+000 5.760000229E+000 5.000000000E-001 8.680555224E-002
 4.550000000E+001 0.000000000E+000 0.000000000E+000 5.940000057E+000 4.900000095E-001 8.249158412E-002
 5.250000000E+001 0.000000000E+000 0.000000000E+000 6.099999905E+000 4.799999893E-001 7.868852466E-002
 6.125000000E+001 0.000000000E+000 0.000000000E+000 6.320000172E+000 4.699999988E-001 7.436708361E-002
 7.000000000E+001 0.000000000E+000 0.000000000E+000 6.449999809E+000 4.799999893E-001 7.441860437E-002
 7.875000000E+001 0.000000000E+000 0.000000000E+000 6.599999905E+000 4.699999988E-001 7.121212035E-002
 8.750000000E+001 0.000000000E+000 0.000000000E+000 6.670000076E+000 4.699999988E-001 7.046476752E-002
 9.625000000E+001 0.000000000E+000 0.000000000E+000 6.769999981E+000 4.799999893E-001 7.090103626E-002
 1.050000000E+002 0.000000000E+000 0.000000000E+000 6.820000172E+000 4.799999893E-001 7.038123161E-002
 1.400000000E+002 0.000000000E+000 0.000000000E+000 7.099999905E+000 4.799999893E-001 6.760562956E-002
 1.662500000E+002 0.000000000E+000 0.000000000E+000 7.289999962E+000 4.799999893E-001 6.584361941E-002
 2.187500000E+002 0.000000000E+000 0.000000000E+000 7.639999866E+000 4.600000083E-001 6.020942703E-002
ZONE T="Topo_BL_W_FL_U_W_LDA01_2400_010"
 I=16, J=1, K=1, ZONETYPE=Ordered
 DATAPACKING=POINT
 DT=(SINGLE SINGLE SINGLE SINGLE SINGLE SINGLE )
 2.100000000E+001 0.000000000E+000 0.000000000E+000 3.890000105E+000 4.600000083E-001 1.182519272E-001
 2.625000000E+001 0.000000000E+000 0.000000000E+000 4.099999905E+000 5.099999905E-001 1.243902445E-001
 3.150000000E+001 0.000000000E+000 0.000000000E+000 4.400000095E+000 5.400000215E-001 1.227272749E-001
 3.850000000E+001 0.000000000E+000 0.000000000E+000 4.820000172E+000 5.500000119E-001 1.141078845E-001
 4.550000000E+001 0.000000000E+000 0.000000000E+000 5.170000076E+000 5.299999714E-001 1.025144979E-001
 5.250000000E+001 0.000000000E+000 0.000000000E+000 5.510000229E+000 5.099999905E-001 9.255897999E-002
 6.125000000E+001 0.000000000E+000 0.000000000E+000 5.769999981E+000 4.799999893E-001 8.318890631E-002
 7.000000000E+001 0.000000000E+000 0.000000000E+000 5.960000038E+000 4.699999988E-001 7.885906100E-002
 7.875000000E+001 0.000000000E+000 0.000000000E+000 6.170000076E+000 4.600000083E-001 7.455429435E-002
 8.750000000E+001 0.000000000E+000 0.000000000E+000 6.320000172E+000 4.600000083E-001 7.278481126E-002
 1.050000000E+002 0.000000000E+000 0.000000000E+000 6.500000000E+000 4.600000083E-001 7.076923549E-002
 1.400000000E+002 0.000000000E+000 0.000000000E+000 6.889999866E+000 4.499999881E-001 6.531204283E-002
 2.187500000E+002 0.000000000E+000 0.000000000E+000 7.420000076E+000 4.199999869E-001 5.660377070E-002
 4.200000000E+002 0.000000000E+000 0.000000000E+000 8.039999962E+000 3.300000131E-001 4.104477912E-002
 7.000000000E+002 0.000000000E+000 0.000000000E+000 8.279999733E+000 2.599999905E-001 3.140096739E-002
 1.225000000E+003 0.000000000E+000 0.000000000E+000 8.220000267E+000 2.199999988E-001 2.676398866E-002
ZONE T="Topo_BL_W_FL_U_W_LDA01_2400_012"
 I=16, J=1, K=1, ZONETYPE=Ordered
 DATAPACKING=POINT
 DT=(SINGLE SINGLE SINGLE SINGLE SINGLE SINGLE )
 1.750000000E+001 0.000000000E+000 0.000000000E+000 4.550000191E+000 5.099999905E-001 1.120879054E-001
 2.100000000E+001 0.000000000E+000 0.000000000E+000 4.699999809E+000 5.199999809E-001 1.106382981E-001
 2.625000000E+001 0.000000000E+000 0.000000000E+000 5.059999943E+000 5.199999809E-001 1.027667969E-001
 3.150000000E+001 0.000000000E+000 0.000000000E+000 5.349999905E+000 5.199999809E-001 9.719625860E-002
 3.850000000E+001 0.000000000E+000 0.000000000E+000 5.690000057E+000 5.000000000E-001 8.787345886E-002
 4.550000000E+001 0.000000000E+000 0.000000000E+000 5.960000038E+000 4.900000095E-001 8.221476525E-002
 5.250000000E+001 0.000000000E+000 0.000000000E+000 6.199999809E+000 4.799999893E-001 7.741935551E-002
 6.125000000E+001 0.000000000E+000 0.000000000E+000 6.369999886E+000 4.600000083E-001 7.221350074E-002
 7.000000000E+001 0.000000000E+000 0.000000000E+000 6.579999924E+000 4.499999881E-001 6.838905811E-002
 7.875000000E+001 0.000000000E+000 0.000000000E+000 6.699999809E+000 4.399999976E-001 6.567164510E-002
 8.750000000E+001 0.000000000E+000 0.000000000E+000 6.849999905E+000 4.300000072E-001 6.277372688E-002
 9.625000000E+001 0.000000000E+000 0.000000000E+000 6.949999809E+000 4.300000072E-001 6.187050790E-002
 1.050000000E+002 0.000000000E+000 0.000000000E+000 7.059999943E+000 4.300000072E-001 6.090651825E-002
 1.400000000E+002 0.000000000E+000 0.000000000E+000 7.349999905E+000 4.300000072E-001 5.850340426E-002
 1.662500000E+002 0.000000000E+000 0.000000000E+000 7.500000000E+000 4.300000072E-001 5.733333528E-002
 2.187500000E+002 0.000000000E+000 0.000000000E+000 7.780000210E+000 4.000000060E-001 5.141388252E-002
ZONE T="Topo_BL_W_FL_U_W_LDA01_2400_013"
 I=16, J=1, K=1, ZONETYPE=Ordered
 DATAPACKING=POINT
 DT=(SINGLE SINGLE SINGLE SINGLE SINGLE SINGLE )
 2.100000000E+001 0.000000000E+000 0.000000000E+000 3.809999943E+000 5.099999905E-001 1.338582635E-001
 2.625000000E+001 0.000000000E+000 0.000000000E+000 3.849999905E+000 5.099999905E-001 1.324675381E-001
 3.150000000E+001 0.000000000E+000 0.000000000E+000 4.280000210E+000 5.000000000E-001 1.168224216E-001
 3.850000000E+001 0.000000000E+000 0.000000000E+000 4.699999809E+000 5.000000000E-001 1.063829809E-001
 4.550000000E+001 0.000000000E+000 0.000000000E+000 4.989999771E+000 5.099999905E-001 1.022044122E-001
 5.250000000E+001 0.000000000E+000 0.000000000E+000 5.199999809E+000 5.199999809E-001 1.000000015E-001
 6.125000000E+001 0.000000000E+000 0.000000000E+000 5.460000038E+000 5.299999714E-001 9.706959128E-002
 7.000000000E+001 0.000000000E+000 0.000000000E+000 5.650000095E+000 5.199999809E-001 9.203539044E-002
 7.875000000E+001 0.000000000E+000 0.000000000E+000 5.849999905E+000 5.299999714E-001 9.059828520E-002
 8.750000000E+001 0.000000000E+000 0.000000000E+000 5.929999828E+000 5.299999714E-001 8.937605470E-002
 1.050000000E+002 0.000000000E+000 0.000000000E+000 6.170000076E+000 5.199999809E-001 8.427876234E-002
 1.400000000E+002 0.000000000E+000 0.000000000E+000 6.550000191E+000 5.000000000E-001 7.633587718E-002
 2.187500000E+002 0.000000000E+000 0.000000000E+000 7.210000038E+000 4.600000083E-001 6.380027533E-002
 4.200000000E+002 0.000000000E+000 0.000000000E+000 7.969999790E+000 3.600000143E-001 4.516938701E-002
 7.000000000E+002 0.000000000E+000 0.000000000E+000 8.289999962E+000 2.599999905E-001 3.136308864E-002
 1.225000000E+003 0.000000000E+000 0.000000000E+000 8.229999542E+000 2.000000030E-001 2.430133894E-002
ZONE T="Topo_BL_W_FL_U_W_LDA01_2400_014"
 I=16, J=1, K=1, ZONETYPE=Ordered
 DATAPACKING=POINT
 DT=(SINGLE SINGLE SINGLE SINGLE SINGLE SINGLE )
 1.750000000E+001 0.000000000E+000 0.000000000E+000 4.530000210E+000 5.099999905E-001 1.125827730E-001
 2.100000000E+001 0.000000000E+000 0.000000000E+000 4.659999847E+000 5.099999905E-001 1.094420627E-001
 2.625000000E+001 0.000000000E+000 0.000000000E+000 5.000000000E+000 5.199999809E-001 1.039999947E-001
 3.150000000E+001 0.000000000E+000 0.000000000E+000 5.280000210E+000 5.099999905E-001 9.659090638E-002
 3.850000000E+001 0.000000000E+000 0.000000000E+000 5.570000172E+000 5.000000000E-001 8.976660669E-002
 4.550000000E+001 0.000000000E+000 0.000000000E+000 5.820000172E+000 4.900000095E-001 8.419243991E-002
 5.250000000E+001 0.000000000E+000 0.000000000E+000 6.019999981E+000 4.799999893E-001 7.973422110E-002
 6.125000000E+001 0.000000000E+000 0.000000000E+000 6.250000000E+000 4.699999988E-001 7.519999892E-002
 7.000000000E+001 0.000000000E+000 0.000000000E+000 6.429999828E+000 4.600000083E-001 7.153966278E-002
 7.875000000E+001 0.000000000E+000 0.000000000E+000 6.579999924E+000 4.600000083E-001 6.990882009E-002
 8.750000000E+001 0.000000000E+000 0.000000000E+000 6.699999809E+000 4.600000083E-001 6.865672022E-002
 9.625000000E+001 0.000000000E+000 0.000000000E+000 6.760000229E+000 4.600000083E-001 6.804733723E-002
 1.050000000E+002 0.000000000E+000 0.000000000E+000 6.860000134E+000 4.600000083E-001 6.705539674E-002
 1.400000000E+002 0.000000000E+000 0.000000000E+000 7.179999828E+000 4.699999988E-001 6.545960903E-002
 1.662500000E+002 0.000000000E+000 0.000000000E+000 7.309999943E+000 4.699999988E-001 6.429548562E-002
 2.187500000E+002 0.000000000E+000 0.000000000E+000 7.630000114E+000 4.399999976E-001 5.766710266E-002
